<?xml version="1.0" encoding="UTF-8"?>

<!-- generated on 2022-03-31 23:54:28 by Eclipse SUMO sumo Version 1.9.2
<configuration xmlns:xsi="http://www.w3.org/2001/XMLSchema-instance" xsi:noNamespaceSchemaLocation="http://sumo.dlr.de/xsd/sumoConfiguration.xsd">

    <input>
        <net-file value="/Users/peterantonio/bup_sumo3d/sumo_web3d/server/../scenarios/bologna-acosta/joined_buslanes.net.xml"/>
        <route-files value="/Users/peterantonio/bup_sumo3d/sumo_web3d/server/../scenarios/bologna-acosta/joined.rou.xml,/Users/peterantonio/bup_sumo3d/sumo_web3d/server/../scenarios/bologna-acosta/joined_busses.rou.xml"/>
        <additional-files value="/Users/peterantonio/bup_sumo3d/sumo_web3d/server/../scenarios/bologna-acosta/joined_bus_stops.add.xml,/Users/peterantonio/bup_sumo3d/sumo_web3d/server/../scenarios/bologna-acosta/joined_detectors.add.xml,/Users/peterantonio/bup_sumo3d/sumo_web3d/server/../scenarios/bologna-acosta/joined_vtypes.add.xml,/Users/peterantonio/bup_sumo3d/sumo_web3d/server/../scenarios/bologna-acosta/joined_tls.add.xml,/Users/peterantonio/bup_sumo3d/sumo_web3d/server/../scenarios/bologna-acosta/acosta-poly.xml"/>
    </input>

    <output>
        <tripinfo-output value="/Users/peterantonio/bup_sumo3d/sumo_web3d/server/../scenarios/bologna-acosta/tripinfos.xml"/>
        <save-state.prefix value="/Users/peterantonio/bup_sumo3d/sumo_web3d/server/../scenarios/bologna-acosta/state"/>
    </output>

    <report>
        <log value="/Users/peterantonio/bup_sumo3d/sumo_web3d/server/../scenarios/bologna-acosta/sumo_log.txt"/>
        <no-step-log value="true"/>
    </report>

    <emissions>
        <phemlight-path value="/Users/peterantonio/bup_sumo3d/sumo_web3d/server/../scenarios/bologna-acosta/./PHEMlight/"/>
    </emissions>

    <traci_server>
        <remote-port value="52993"/>
    </traci_server>

</configuration>
-->

<tripinfos xmlns:xsi="http://www.w3.org/2001/XMLSchema-instance" xsi:noNamespaceSchemaLocation="http://sumo.dlr.de/xsd/tripinfo_file.xsd">
    <tripinfo id="Pertini_20_0" depart="0.00" departLane="b63[0]_1" departPos="0.00" departSpeed="0.00" departDelay="0.00" arrival="75.00" arrivalLane="b4[1][1][1]_0" arrivalPos="172.70" arrivalSpeed="14.22" duration="75.00" routeLength="889.67" waitingTime="5.00" waitingCount="1" stopTime="0.00" timeLoss="15.99" rerouteNo="0" devices="tripinfo_Pertini_20_0" vType="passenger2b" speedFactor="1.09" vaporized=""/>
    <tripinfo id="Pertini_20_1" depart="2.00" departLane="b63[0]_2" departPos="0.00" departSpeed="0.00" departDelay="0.00" arrival="76.00" arrivalLane="b4[1][1][1]_1" arrivalPos="172.70" arrivalSpeed="12.79" duration="74.00" routeLength="889.67" waitingTime="0.00" waitingCount="0" stopTime="0.00" timeLoss="10.72" rerouteNo="0" devices="tripinfo_Pertini_20_1" vType="passenger2b" speedFactor="1.02" vaporized=""/>
    <tripinfo id="Pertini_20_2" depart="4.00" departLane="b63[0]_2" departPos="0.00" departSpeed="0.00" departDelay="0.00" arrival="80.00" arrivalLane="b4[1][1][1]_0" arrivalPos="172.70" arrivalSpeed="13.04" duration="76.00" routeLength="889.67" waitingTime="0.00" waitingCount="0" stopTime="0.00" timeLoss="7.70" rerouteNo="0" devices="tripinfo_Pertini_20_2" vType="passenger2b" speedFactor="0.95" vaporized=""/>
    <tripinfo id="Pepoli_8_16" depart="27.00" departLane="a210_0" departPos="0.00" departSpeed="0.00" departDelay="0.00" arrival="80.00" arrivalLane="a134b_0" arrivalPos="158.70" arrivalSpeed="14.33" duration="53.00" routeLength="693.78" waitingTime="0.00" waitingCount="0" stopTime="0.00" timeLoss="7.35" rerouteNo="0" devices="tripinfo_Pepoli_8_16" vType="passenger1" speedFactor="1.10" vaporized=""/>
    <tripinfo id="Prati_Capraia_10_0" depart="0.00" departLane="b3[0]_0" departPos="0.00" departSpeed="0.00" departDelay="0.00" arrival="81.00" arrivalLane="b10_0" arrivalPos="226.64" arrivalSpeed="11.98" duration="81.00" routeLength="410.85" waitingTime="39.00" waitingCount="1" stopTime="0.00" timeLoss="48.26" rerouteNo="0" devices="tripinfo_Prati_Capraia_10_0" vType="passenger2b" speedFactor="0.92" vaporized=""/>
    <tripinfo id="Prati_Capraia_10_1" depart="4.00" departLane="b3[0]_0" departPos="0.00" departSpeed="0.00" departDelay="0.00" arrival="82.00" arrivalLane="b10_0" arrivalPos="226.64" arrivalSpeed="12.92" duration="78.00" routeLength="410.85" waitingTime="37.00" waitingCount="1" stopTime="0.00" timeLoss="47.11" rerouteNo="0" devices="tripinfo_Prati_Capraia_10_1" vType="passenger1" speedFactor="0.96" vaporized=""/>
    <tripinfo id="Prati_Capraia_10_7" depart="34.00" departLane="b3[0]_0" departPos="0.00" departSpeed="0.00" departDelay="0.00" arrival="86.00" arrivalLane="b10_0" arrivalPos="226.64" arrivalSpeed="13.43" duration="52.00" routeLength="410.85" waitingTime="12.00" waitingCount="1" stopTime="0.00" timeLoss="22.55" rerouteNo="0" devices="tripinfo_Prati_Capraia_10_7" vType="passenger1" speedFactor="1.01" vaporized=""/>
    <tripinfo id="Certosa_9_0" depart="0.00" departLane="b22[0]_1" departPos="0.00" departSpeed="0.00" departDelay="0.00" arrival="88.00" arrivalLane="b2[1][1][1]b_2" arrivalPos="323.28" arrivalSpeed="16.09" duration="88.00" routeLength="620.07" waitingTime="38.00" waitingCount="1" stopTime="0.00" timeLoss="50.28" rerouteNo="0" devices="tripinfo_Certosa_9_0" vType="passenger2b" speedFactor="1.20" vaporized=""/>
    <tripinfo id="Pertini_20_9" depart="19.00" departLane="b63[0]_1" departPos="0.00" departSpeed="0.00" departDelay="0.00" arrival="93.00" arrivalLane="b4[1][1][1]_1" arrivalPos="172.70" arrivalSpeed="13.26" duration="74.00" routeLength="889.67" waitingTime="0.00" waitingCount="0" stopTime="0.00" timeLoss="7.78" rerouteNo="0" devices="tripinfo_Pertini_20_9" vType="passenger2b" speedFactor="0.98" vaporized=""/>
    <tripinfo id="Pertini_20_7" depart="15.00" departLane="b63[0]_2" departPos="0.00" departSpeed="0.00" departDelay="0.00" arrival="94.00" arrivalLane="b4[1][1][1]_0" arrivalPos="172.70" arrivalSpeed="11.35" duration="79.00" routeLength="889.67" waitingTime="0.00" waitingCount="0" stopTime="0.00" timeLoss="6.12" rerouteNo="0" devices="tripinfo_Pertini_20_7" vType="passenger3" speedFactor="0.88" vaporized=""/>
    <tripinfo id="Pertini_20_11" depart="23.00" departLane="b63[0]_1" departPos="0.00" departSpeed="0.00" departDelay="0.00" arrival="94.00" arrivalLane="b4[1][1][1]_1" arrivalPos="172.70" arrivalSpeed="14.54" duration="71.00" routeLength="889.67" waitingTime="0.00" waitingCount="0" stopTime="0.00" timeLoss="12.50" rerouteNo="0" devices="tripinfo_Pertini_20_11" vType="passenger2b" speedFactor="1.10" vaporized=""/>
    <tripinfo id="Pertini_20_12" depart="25.00" departLane="b63[0]_2" departPos="0.00" departSpeed="0.00" departDelay="0.00" arrival="96.00" arrivalLane="b4[1][1][1]_0" arrivalPos="172.70" arrivalSpeed="15.86" duration="71.00" routeLength="889.67" waitingTime="0.00" waitingCount="0" stopTime="0.00" timeLoss="18.83" rerouteNo="0" devices="tripinfo_Pertini_20_12" vType="passenger1" speedFactor="1.25" vaporized=""/>
    <tripinfo id="Pertini_20_10" depart="21.00" departLane="b63[0]_2" departPos="0.00" departSpeed="0.00" departDelay="0.00" arrival="98.00" arrivalLane="b4[1][1][1]_0" arrivalPos="172.70" arrivalSpeed="12.54" duration="77.00" routeLength="889.67" waitingTime="0.00" waitingCount="0" stopTime="0.00" timeLoss="9.28" rerouteNo="0" devices="tripinfo_Pertini_20_10" vType="passenger1" speedFactor="0.95" vaporized=""/>
    <tripinfo id="Pertini_20_14" depart="30.00" departLane="b63[0]_1" departPos="0.00" departSpeed="0.00" departDelay="0.00" arrival="98.00" arrivalLane="b4[1][1][1]_1" arrivalPos="172.70" arrivalSpeed="14.03" duration="68.00" routeLength="889.67" waitingTime="0.00" waitingCount="0" stopTime="0.00" timeLoss="6.76" rerouteNo="0" devices="tripinfo_Pertini_20_14" vType="passenger4" speedFactor="1.06" vaporized=""/>
    <tripinfo id="Prati_Capraia_100_3" depart="14.00" departLane="b3[0]_0" departPos="0.00" departSpeed="0.00" departDelay="0.00" arrival="99.00" arrivalLane="b3[1]b_0" arrivalPos="241.22" arrivalSpeed="12.78" duration="85.00" routeLength="624.73" waitingTime="26.00" waitingCount="1" stopTime="0.00" timeLoss="39.78" rerouteNo="0" devices="tripinfo_Prati_Capraia_100_3" vType="passenger5" speedFactor="1.00" vaporized=""/>
    <tripinfo id="Prati_Capraia_100_5" depart="24.00" departLane="b3[0]_0" departPos="0.00" departSpeed="0.00" departDelay="0.00" arrival="99.00" arrivalLane="b3[1]b_1" arrivalPos="241.22" arrivalSpeed="14.51" duration="75.00" routeLength="624.73" waitingTime="22.00" waitingCount="1" stopTime="0.00" timeLoss="32.78" rerouteNo="0" devices="tripinfo_Prati_Capraia_100_5" vType="passenger2b" speedFactor="1.08" vaporized=""/>
    <tripinfo id="Pertini_20_15" depart="32.00" departLane="b63[0]_2" departPos="0.00" departSpeed="0.00" departDelay="0.00" arrival="99.00" arrivalLane="b4[1][1][1]_1" arrivalPos="172.70" arrivalSpeed="14.89" duration="67.00" routeLength="889.67" waitingTime="0.00" waitingCount="0" stopTime="0.00" timeLoss="9.49" rerouteNo="0" devices="tripinfo_Pertini_20_15" vType="passenger1" speedFactor="1.12" vaporized=""/>
    <tripinfo id="Pepoli_8_21" depart="36.00" departLane="a210_0" departPos="0.00" departSpeed="0.00" departDelay="0.00" arrival="99.00" arrivalLane="a134b_0" arrivalPos="158.70" arrivalSpeed="12.19" duration="63.00" routeLength="693.78" waitingTime="0.00" waitingCount="0" stopTime="0.00" timeLoss="6.19" rerouteNo="0" devices="tripinfo_Pepoli_8_21" vType="passenger2b" speedFactor="0.89" vaporized=""/>
    <tripinfo id="Prati_Capraia_100_2" depart="9.00" departLane="b3[0]_1" departPos="0.00" departSpeed="0.00" departDelay="0.00" arrival="101.00" arrivalLane="b3[1]b_1" arrivalPos="241.22" arrivalSpeed="14.68" duration="92.00" routeLength="624.73" waitingTime="34.00" waitingCount="1" stopTime="0.00" timeLoss="49.89" rerouteNo="0" devices="tripinfo_Prati_Capraia_100_2" vType="passenger1" speedFactor="1.09" vaporized=""/>
    <tripinfo id="Pepoli_8_23" depart="39.00" departLane="a210_0" departPos="0.00" departSpeed="0.00" departDelay="0.00" arrival="101.00" arrivalLane="a134b_0" arrivalPos="158.70" arrivalSpeed="12.19" duration="62.00" routeLength="693.78" waitingTime="0.00" waitingCount="0" stopTime="0.00" timeLoss="6.27" rerouteNo="0" devices="tripinfo_Pepoli_8_23" vType="passenger1" speedFactor="0.91" vaporized=""/>
    <tripinfo id="Pertini_20_16" depart="34.00" departLane="b63[0]_1" departPos="0.00" departSpeed="0.00" departDelay="0.00" arrival="102.00" arrivalLane="b4[1][1][1]_1" arrivalPos="172.70" arrivalSpeed="13.34" duration="68.00" routeLength="889.67" waitingTime="0.00" waitingCount="0" stopTime="0.00" timeLoss="6.07" rerouteNo="0" devices="tripinfo_Pertini_20_16" vType="passenger3" speedFactor="1.04" vaporized=""/>
    <tripinfo id="Gandhi_80_11" depart="17.00" departLane="b1[0]_0" departPos="0.00" departSpeed="0.00" departDelay="0.00" arrival="103.00" arrivalLane="b21_0" arrivalPos="103.70" arrivalSpeed="11.73" duration="86.00" routeLength="515.76" waitingTime="34.00" waitingCount="1" stopTime="0.00" timeLoss="45.25" rerouteNo="0" devices="tripinfo_Gandhi_80_11" vType="passenger1" speedFactor="0.93" vaporized=""/>
    <tripinfo id="Prati_Capraia_100_9" depart="43.00" departLane="b3[0]_0" departPos="0.00" departSpeed="0.00" departDelay="0.00" arrival="105.00" arrivalLane="b3[1]b_0" arrivalPos="241.22" arrivalSpeed="13.13" duration="62.00" routeLength="624.73" waitingTime="3.00" waitingCount="1" stopTime="0.00" timeLoss="15.89" rerouteNo="0" devices="tripinfo_Prati_Capraia_100_9" vType="passenger4" speedFactor="0.98" vaporized=""/>
    <tripinfo id="Prati_Capraia_100_4" depart="19.00" departLane="b3[0]_1" departPos="0.00" departSpeed="0.00" departDelay="0.00" arrival="106.00" arrivalLane="b3[1]b_1" arrivalPos="241.22" arrivalSpeed="13.55" duration="87.00" routeLength="624.73" waitingTime="23.00" waitingCount="1" stopTime="0.00" timeLoss="40.30" rerouteNo="0" devices="tripinfo_Prati_Capraia_100_4" vType="passenger2b" speedFactor="0.98" vaporized=""/>
    <tripinfo id="Prati_Capraia_100_8" depart="38.00" departLane="b3[0]_1" departPos="0.00" departSpeed="0.00" departDelay="0.00" arrival="107.00" arrivalLane="b3[1]b_1" arrivalPos="241.22" arrivalSpeed="14.54" duration="69.00" routeLength="624.73" waitingTime="8.00" waitingCount="1" stopTime="0.00" timeLoss="30.61" rerouteNo="0" devices="tripinfo_Prati_Capraia_100_8" vType="passenger4" speedFactor="1.18" vaporized=""/>
    <tripinfo id="Prati_Capraia_100_11" depart="53.00" departLane="b3[0]_0" departPos="0.00" departSpeed="0.00" departDelay="0.00" arrival="107.00" arrivalLane="b3[1]b_0" arrivalPos="241.22" arrivalSpeed="14.88" duration="54.00" routeLength="624.73" waitingTime="0.00" waitingCount="0" stopTime="0.00" timeLoss="12.29" rerouteNo="0" devices="tripinfo_Prati_Capraia_100_11" vType="passenger3" speedFactor="1.10" vaporized=""/>
    <tripinfo id="Pertini_20_17" depart="36.00" departLane="b63[0]_2" departPos="0.00" departSpeed="0.00" departDelay="0.00" arrival="109.00" arrivalLane="b4[1][1][1]_0" arrivalPos="172.70" arrivalSpeed="13.31" duration="73.00" routeLength="889.67" waitingTime="0.00" waitingCount="0" stopTime="0.00" timeLoss="6.55" rerouteNo="0" devices="tripinfo_Pertini_20_17" vType="passenger2b" speedFactor="0.97" vaporized=""/>
    <tripinfo id="Prati_Capraia_100_12" depart="58.00" departLane="b3[0]_1" departPos="0.00" departSpeed="0.00" departDelay="0.00" arrival="109.00" arrivalLane="b3[1]b_1" arrivalPos="241.22" arrivalSpeed="15.72" duration="51.00" routeLength="624.73" waitingTime="0.00" waitingCount="0" stopTime="0.00" timeLoss="10.84" rerouteNo="0" devices="tripinfo_Prati_Capraia_100_12" vType="passenger4" speedFactor="1.14" vaporized=""/>
    <tripinfo id="Pertini_20_18" depart="38.00" departLane="b63[0]_1" departPos="0.00" departSpeed="0.00" departDelay="0.00" arrival="110.00" arrivalLane="b4[1][1][1]_1" arrivalPos="172.70" arrivalSpeed="12.97" duration="72.00" routeLength="889.67" waitingTime="0.00" waitingCount="0" stopTime="0.00" timeLoss="6.21" rerouteNo="0" devices="tripinfo_Pertini_20_18" vType="passenger3" speedFactor="0.98" vaporized=""/>
    <tripinfo id="Prati_Capraia_100_10" depart="48.00" departLane="b3[0]_1" departPos="0.00" departSpeed="0.00" departDelay="0.00" arrival="110.00" arrivalLane="b3[1]b_0" arrivalPos="241.22" arrivalSpeed="12.95" duration="62.00" routeLength="624.73" waitingTime="0.00" waitingCount="0" stopTime="0.00" timeLoss="16.51" rerouteNo="0" devices="tripinfo_Prati_Capraia_100_10" vType="passenger1" speedFactor="1.00" vaporized=""/>
    <tripinfo id="Pertini_20_22" depart="47.00" departLane="b63[0]_2" departPos="0.00" departSpeed="0.00" departDelay="0.00" arrival="111.00" arrivalLane="b4[1][1][1]_0" arrivalPos="172.70" arrivalSpeed="15.16" duration="64.00" routeLength="889.67" waitingTime="0.00" waitingCount="0" stopTime="0.00" timeLoss="9.18" rerouteNo="0" devices="tripinfo_Pertini_20_22" vType="passenger1" speedFactor="1.18" vaporized=""/>
    <tripinfo id="Prati_Capraia_100_13" depart="63.00" departLane="b3[0]_0" departPos="0.00" departSpeed="0.00" departDelay="0.00" arrival="111.00" arrivalLane="b3[1]b_1" arrivalPos="241.22" arrivalSpeed="14.61" duration="48.00" routeLength="624.73" waitingTime="0.00" waitingCount="0" stopTime="0.00" timeLoss="5.76" rerouteNo="0" devices="tripinfo_Prati_Capraia_100_13" vType="passenger2a" speedFactor="1.07" vaporized=""/>
    <tripinfo id="Gandhi_80_45" depart="70.00" departLane="b1[0]_0" departPos="0.00" departSpeed="0.00" departDelay="0.00" arrival="113.00" arrivalLane="b21_0" arrivalPos="103.70" arrivalSpeed="14.97" duration="43.00" routeLength="515.76" waitingTime="0.00" waitingCount="0" stopTime="0.00" timeLoss="8.62" rerouteNo="0" devices="tripinfo_Gandhi_80_45" vType="passenger4" speedFactor="1.08" vaporized=""/>
    <tripinfo id="Pertini_20_21" depart="45.00" departLane="b63[0]_1" departPos="0.00" departSpeed="0.00" departDelay="0.00" arrival="120.00" arrivalLane="b4[1][1][1]_0" arrivalPos="172.70" arrivalSpeed="12.13" duration="75.00" routeLength="889.67" waitingTime="0.00" waitingCount="0" stopTime="0.00" timeLoss="6.91" rerouteNo="0" devices="tripinfo_Pertini_20_21" vType="passenger3" speedFactor="0.94" vaporized=""/>
    <tripinfo id="Pertini_20_25" depart="53.00" departLane="b63[0]_1" departPos="0.00" departSpeed="0.00" departDelay="0.00" arrival="122.00" arrivalLane="b4[1][1][1]_0" arrivalPos="172.70" arrivalSpeed="15.92" duration="69.00" routeLength="889.67" waitingTime="0.00" waitingCount="0" stopTime="0.00" timeLoss="14.20" rerouteNo="0" devices="tripinfo_Pertini_20_25" vType="passenger1" speedFactor="1.17" vaporized=""/>
    <tripinfo id="Audinot_7_0" depart="0.00" departLane="a131_0" departPos="0.00" departSpeed="0.00" departDelay="0.00" arrival="124.00" arrivalLane="a209_0" arrivalPos="395.74" arrivalSpeed="12.75" duration="124.00" routeLength="875.18" waitingTime="44.00" waitingCount="1" stopTime="0.00" timeLoss="58.57" rerouteNo="0" devices="tripinfo_Audinot_7_0" vType="passenger4" speedFactor="0.98" vaporized=""/>
    <tripinfo id="Costa_3_21" depart="55.00" departLane="a78[0]_0" departPos="0.00" departSpeed="0.00" departDelay="1.00" arrival="124.00" arrivalLane="a14_0" arrivalPos="90.27" arrivalSpeed="13.77" duration="69.00" routeLength="854.03" waitingTime="0.00" waitingCount="0" stopTime="0.00" timeLoss="8.29" rerouteNo="0" devices="tripinfo_Costa_3_21" vType="passenger4" speedFactor="1.01" vaporized=""/>
    <tripinfo id="Prati_Capraia_100_14" depart="68.00" departLane="b3[0]_1" departPos="0.00" departSpeed="0.00" departDelay="0.00" arrival="125.00" arrivalLane="b3[1]b_0" arrivalPos="241.22" arrivalSpeed="11.67" duration="57.00" routeLength="624.73" waitingTime="0.00" waitingCount="0" stopTime="0.00" timeLoss="5.30" rerouteNo="0" devices="tripinfo_Prati_Capraia_100_14" vType="passenger1" speedFactor="0.87" vaporized=""/>
    <tripinfo id="Prati_Capraia_100_16" depart="77.00" departLane="b3[0]_0" departPos="0.00" departSpeed="0.00" departDelay="0.00" arrival="126.00" arrivalLane="b3[1]b_1" arrivalPos="241.22" arrivalSpeed="13.72" duration="49.00" routeLength="624.73" waitingTime="0.00" waitingCount="0" stopTime="0.00" timeLoss="5.59" rerouteNo="0" devices="tripinfo_Prati_Capraia_100_16" vType="passenger2b" speedFactor="1.04" vaporized=""/>
    <tripinfo id="Prati_Capraia_10_19" depart="92.00" departLane="b3[0]_0" departPos="0.00" departSpeed="0.00" departDelay="0.00" arrival="126.00" arrivalLane="b10_0" arrivalPos="226.64" arrivalSpeed="13.90" duration="34.00" routeLength="410.85" waitingTime="0.00" waitingCount="0" stopTime="0.00" timeLoss="4.52" rerouteNo="0" devices="tripinfo_Prati_Capraia_10_19" vType="passenger3" speedFactor="1.01" vaporized=""/>
    <tripinfo id="Pertini_20_27" depart="58.00" departLane="b63[0]_1" departPos="0.00" departSpeed="0.00" departDelay="0.00" arrival="127.00" arrivalLane="b4[1][1][1]_1" arrivalPos="172.70" arrivalSpeed="15.81" duration="69.00" routeLength="889.67" waitingTime="0.00" waitingCount="0" stopTime="0.00" timeLoss="12.66" rerouteNo="0" devices="tripinfo_Pertini_20_27" vType="passenger3" speedFactor="1.15" vaporized=""/>
    <tripinfo id="Pertini_20_19" depart="40.00" departLane="b63[0]_2" departPos="0.00" departSpeed="0.00" departDelay="0.00" arrival="129.00" arrivalLane="b4[1][1][1]_0" arrivalPos="172.70" arrivalSpeed="9.79" duration="89.00" routeLength="889.67" waitingTime="0.00" waitingCount="0" stopTime="0.00" timeLoss="8.64" rerouteNo="0" devices="tripinfo_Pertini_20_19" vType="passenger2b" speedFactor="0.80" vaporized=""/>
    <tripinfo id="Pertini_20_28" depart="60.00" departLane="b63[0]_2" departPos="0.00" departSpeed="0.00" departDelay="0.00" arrival="129.00" arrivalLane="b4[1][1][1]_1" arrivalPos="172.70" arrivalSpeed="14.68" duration="69.00" routeLength="889.67" waitingTime="0.00" waitingCount="0" stopTime="0.00" timeLoss="11.73" rerouteNo="0" devices="tripinfo_Pertini_20_28" vType="passenger1" speedFactor="1.13" vaporized=""/>
    <tripinfo id="Pertini_10_20" depart="43.00" departLane="b63[0]_2" departPos="0.00" departSpeed="0.00" departDelay="0.00" arrival="130.00" arrivalLane="b10_0" arrivalPos="226.64" arrivalSpeed="14.78" duration="87.00" routeLength="944.54" waitingTime="9.00" waitingCount="1" stopTime="0.00" timeLoss="23.84" rerouteNo="0" devices="tripinfo_Pertini_10_20" vType="passenger5" speedFactor="1.09" vaporized=""/>
    <tripinfo id="Pertini_20_26" depart="55.00" departLane="b63[0]_2" departPos="0.00" departSpeed="0.00" departDelay="0.00" arrival="132.00" arrivalLane="b4[1][1][1]_0" arrivalPos="172.70" arrivalSpeed="12.22" duration="77.00" routeLength="889.67" waitingTime="0.00" waitingCount="0" stopTime="0.00" timeLoss="6.88" rerouteNo="0" devices="tripinfo_Pertini_20_26" vType="passenger2a" speedFactor="0.92" vaporized=""/>
    <tripinfo id="Prati_Capraia_100_17" depart="82.00" departLane="b3[0]_1" departPos="0.00" departSpeed="0.00" departDelay="0.00" arrival="132.00" arrivalLane="b3[1]b_0" arrivalPos="241.22" arrivalSpeed="12.75" duration="50.00" routeLength="624.73" waitingTime="0.00" waitingCount="0" stopTime="0.00" timeLoss="5.07" rerouteNo="0" devices="tripinfo_Prati_Capraia_100_17" vType="passenger1" speedFactor="1.00" vaporized=""/>
    <tripinfo id="Pertini_20_30" depart="64.00" departLane="b63[0]_1" departPos="0.00" departSpeed="0.00" departDelay="0.00" arrival="133.00" arrivalLane="b4[1][1][1]_0" arrivalPos="172.70" arrivalSpeed="14.64" duration="69.00" routeLength="889.67" waitingTime="0.00" waitingCount="0" stopTime="0.00" timeLoss="8.61" rerouteNo="0" devices="tripinfo_Pertini_20_30" vType="passenger1" speedFactor="1.06" vaporized=""/>
    <tripinfo id="Pepoli_9_1" depart="1.00" departLane="a210_0" departPos="0.00" departSpeed="0.00" departDelay="0.00" arrival="137.00" arrivalLane="a54_0" arrivalPos="302.30" arrivalSpeed="11.81" duration="136.00" routeLength="1310.48" waitingTime="21.00" waitingCount="1" stopTime="0.00" timeLoss="35.57" rerouteNo="0" devices="tripinfo_Pepoli_9_1" vType="passenger2b" speedFactor="0.94" vaporized=""/>
    <tripinfo id="Prati_Capraia_100_18" depart="87.00" departLane="b3[0]_0" departPos="0.00" departSpeed="0.00" departDelay="0.00" arrival="140.00" arrivalLane="b3[1]b_0" arrivalPos="241.22" arrivalSpeed="12.01" duration="53.00" routeLength="624.73" waitingTime="0.00" waitingCount="0" stopTime="0.00" timeLoss="5.35" rerouteNo="0" devices="tripinfo_Prati_Capraia_100_18" vType="passenger3" speedFactor="0.95" vaporized=""/>
    <tripinfo id="Malvasia_30_15" depart="72.00" departLane="b52_0" departPos="0.00" departSpeed="0.00" departDelay="0.00" arrival="142.00" arrivalLane="b70_0" arrivalPos="61.95" arrivalSpeed="15.30" duration="70.00" routeLength="961.32" waitingTime="0.00" waitingCount="0" stopTime="0.00" timeLoss="11.55" rerouteNo="0" devices="tripinfo_Malvasia_30_15" vType="passenger1" speedFactor="1.19" vaporized=""/>
    <tripinfo id="Borgo_20_3" depart="18.00" departLane="b6_1" departPos="0.00" departSpeed="0.00" departDelay="0.00" arrival="147.00" arrivalLane="b4[1][1][1]_1" arrivalPos="172.70" arrivalSpeed="12.58" duration="129.00" routeLength="552.91" waitingTime="74.00" waitingCount="1" stopTime="0.00" timeLoss="85.41" rerouteNo="0" devices="tripinfo_Borgo_20_3" vType="passenger2a" speedFactor="0.92" vaporized=""/>
    <tripinfo id="Prati_Capraia_30_6" depart="29.00" departLane="b3[0]_1" departPos="0.00" departSpeed="0.00" departDelay="0.00" arrival="148.00" arrivalLane="b70_0" arrivalPos="61.95" arrivalSpeed="13.53" duration="119.00" routeLength="806.81" waitingTime="30.00" waitingCount="3" stopTime="0.00" timeLoss="60.17" rerouteNo="0" devices="tripinfo_Prati_Capraia_30_6" vType="ignoring2b" speedFactor="1.00" vaporized=""/>
    <tripinfo id="Turati_3_2" depart="69.00" departLane="a195_0" departPos="0.00" departSpeed="0.00" departDelay="0.00" arrival="148.00" arrivalLane="a14_0" arrivalPos="90.27" arrivalSpeed="13.26" duration="79.00" routeLength="953.01" waitingTime="0.00" waitingCount="0" stopTime="0.00" timeLoss="9.90" rerouteNo="0" devices="tripinfo_Turati_3_2" vType="ignoring1" speedFactor="1.00" vaporized=""/>
    <tripinfo id="Borgo_20_4" depart="24.00" departLane="b6_1" departPos="0.00" departSpeed="0.00" departDelay="0.00" arrival="149.00" arrivalLane="b4[1][1][1]_1" arrivalPos="172.70" arrivalSpeed="12.63" duration="125.00" routeLength="552.91" waitingTime="70.00" waitingCount="1" stopTime="0.00" timeLoss="83.29" rerouteNo="0" devices="tripinfo_Borgo_20_4" vType="passenger2a" speedFactor="0.97" vaporized=""/>
    <tripinfo id="Pepoli_10_4" depart="6.00" departLane="a210_0" departPos="0.00" departSpeed="0.00" departDelay="0.00" arrival="150.00" arrivalLane="a204[1][1]_0" arrivalPos="436.47" arrivalSpeed="12.93" duration="144.00" routeLength="1470.66" waitingTime="20.00" waitingCount="1" stopTime="0.00" timeLoss="37.07" rerouteNo="0" devices="tripinfo_Pepoli_10_4" vType="passenger2a" speedFactor="0.99" vaporized=""/>
    <tripinfo id="Pepoli_10_10" depart="17.00" departLane="a210_0" departPos="0.00" departSpeed="0.00" departDelay="0.00" arrival="150.00" arrivalLane="a204[1][1]_1" arrivalPos="436.47" arrivalSpeed="14.60" duration="133.00" routeLength="1470.66" waitingTime="10.00" waitingCount="1" stopTime="0.00" timeLoss="32.28" rerouteNo="0" devices="tripinfo_Pepoli_10_10" vType="passenger1" speedFactor="1.06" vaporized=""/>
    <tripinfo id="Borgo_20_6" depart="36.00" departLane="b6_1" departPos="0.00" departSpeed="0.00" departDelay="0.00" arrival="150.00" arrivalLane="b4[1][1][1]_1" arrivalPos="172.70" arrivalSpeed="13.13" duration="114.00" routeLength="552.91" waitingTime="62.00" waitingCount="1" stopTime="0.00" timeLoss="74.68" rerouteNo="0" devices="tripinfo_Borgo_20_6" vType="passenger3" speedFactor="1.01" vaporized=""/>
    <tripinfo id="Pepoli_8_25" depart="42.00" departLane="a210_0" departPos="0.00" departSpeed="0.00" departDelay="0.00" arrival="151.00" arrivalLane="a134b_0" arrivalPos="158.70" arrivalSpeed="13.46" duration="109.00" routeLength="693.78" waitingTime="45.00" waitingCount="1" stopTime="0.00" timeLoss="58.18" rerouteNo="0" devices="tripinfo_Pepoli_8_25" vType="passenger2b" speedFactor="0.98" vaporized=""/>
    <tripinfo id="Borgo_20_7" depart="42.00" departLane="b6_1" departPos="0.00" departSpeed="0.00" departDelay="0.00" arrival="152.00" arrivalLane="b4[1][1][1]_1" arrivalPos="172.70" arrivalSpeed="14.19" duration="110.00" routeLength="552.91" waitingTime="59.00" waitingCount="1" stopTime="0.00" timeLoss="74.26" rerouteNo="0" devices="tripinfo_Borgo_20_7" vType="passenger2a" speedFactor="1.13" vaporized=""/>
    <tripinfo id="Pepoli_3_0" depart="0.00" departLane="a210_2" departPos="0.00" departSpeed="0.00" departDelay="0.00" arrival="153.00" arrivalLane="a14_0" arrivalPos="90.27" arrivalSpeed="13.71" duration="153.00" routeLength="1950.08" waitingTime="0.00" waitingCount="0" stopTime="0.00" timeLoss="11.72" rerouteNo="0" devices="tripinfo_Pepoli_3_0" vType="ignoring1" speedFactor="1.00" vaporized=""/>
    <tripinfo id="Borgo_100_0" depart="0.00" departLane="b6_0" departPos="0.00" departSpeed="0.00" departDelay="0.00" arrival="157.00" arrivalLane="b3[1]b_0" arrivalPos="241.22" arrivalSpeed="14.58" duration="157.00" routeLength="798.33" waitingTime="93.00" waitingCount="1" stopTime="0.00" timeLoss="103.36" rerouteNo="0" devices="tripinfo_Borgo_100_0" vType="passenger1" speedFactor="1.08" vaporized=""/>
    <tripinfo id="Pepoli_10_22" depart="37.00" departLane="a210_1" departPos="0.00" departSpeed="0.00" departDelay="0.00" arrival="157.00" arrivalLane="a204[1][1]_1" arrivalPos="436.47" arrivalSpeed="13.42" duration="120.00" routeLength="1470.66" waitingTime="0.00" waitingCount="0" stopTime="0.00" timeLoss="14.27" rerouteNo="0" devices="tripinfo_Pepoli_10_22" vType="passenger1" speedFactor="1.00" vaporized=""/>
    <tripinfo id="Pepoli_8_28" depart="48.00" departLane="a210_0" departPos="0.00" departSpeed="0.00" departDelay="0.00" arrival="157.00" arrivalLane="a134b_0" arrivalPos="158.70" arrivalSpeed="11.41" duration="109.00" routeLength="693.78" waitingTime="40.00" waitingCount="1" stopTime="0.00" timeLoss="52.86" rerouteNo="0" devices="tripinfo_Pepoli_8_28" vType="passenger1" speedFactor="0.90" vaporized=""/>
    <tripinfo id="Borgo_20_9" depart="54.00" departLane="b6_1" departPos="0.00" departSpeed="0.00" departDelay="0.00" arrival="157.00" arrivalLane="b4[1][1][1]_1" arrivalPos="172.70" arrivalSpeed="13.29" duration="103.00" routeLength="552.91" waitingTime="50.00" waitingCount="1" stopTime="0.00" timeLoss="61.07" rerouteNo="0" devices="tripinfo_Borgo_20_9" vType="passenger1" speedFactor="0.97" vaporized=""/>
    <tripinfo id="Pepoli_3_2" depart="3.00" departLane="a210_2" departPos="0.00" departSpeed="0.00" departDelay="0.00" arrival="158.00" arrivalLane="a14_0" arrivalPos="90.27" arrivalSpeed="12.82" duration="155.00" routeLength="1950.08" waitingTime="0.00" waitingCount="0" stopTime="0.00" timeLoss="13.78" rerouteNo="0" devices="tripinfo_Pepoli_3_2" vType="ignoring1" speedFactor="1.00" vaporized=""/>
    <tripinfo id="Borgo_100_2" depart="12.00" departLane="b6_0" departPos="0.00" departSpeed="0.00" departDelay="0.00" arrival="158.00" arrivalLane="b3[1]b_0" arrivalPos="241.22" arrivalSpeed="14.84" duration="146.00" routeLength="798.33" waitingTime="82.00" waitingCount="1" stopTime="0.00" timeLoss="93.77" rerouteNo="0" devices="tripinfo_Borgo_100_2" vType="passenger5" speedFactor="1.10" vaporized=""/>
    <tripinfo id="Borgo_20_13" depart="79.00" departLane="b6_1" departPos="0.00" departSpeed="0.00" departDelay="0.00" arrival="158.00" arrivalLane="b4[1][1][1]_1" arrivalPos="172.70" arrivalSpeed="15.02" duration="79.00" routeLength="552.91" waitingTime="30.00" waitingCount="1" stopTime="0.00" timeLoss="43.54" rerouteNo="0" devices="tripinfo_Borgo_20_13" vType="passenger2b" speedFactor="1.13" vaporized=""/>